 argument  1 = nw_methane_HF.nw
                                         
                                         
 
 
              Northwest Computational Chemistry Package (NWChem) 6.3
              ------------------------------------------------------
 
 
                    Environmental Molecular Sciences Laboratory
                       Pacific Northwest National Laboratory
                                Richland, WA 99352
 
                              Copyright (c) 1994-2012
                       Pacific Northwest National Laboratory
                            Battelle Memorial Institute
 
             NWChem is an open-source computational chemistry package
                        distributed under the terms of the
                      Educational Community License (ECL) 2.0
             A copy of the license is included with this distribution
                              in the LICENSE.TXT file
 
                                  ACKNOWLEDGMENT
                                  --------------

            This software and its documentation were developed at the
            EMSL at Pacific Northwest National Laboratory, a multiprogram
            national laboratory, operated for the U.S. Department of Energy
            by Battelle under Contract Number DE-AC05-76RL01830. Support
            for this work was provided by the Department of Energy Office
            of Biological and Environmental Research, Office of Basic
            Energy Sciences, and the Office of Advanced Scientific Computing.


           Job information
           ---------------

    hostname        = n1012
    program         = nwchem
    date            = Tue Sep 12 17:08:44 2017

    compiled        = Thu_Oct_24_15:34:35_2013
    source          = /nopt/nrel/apps/.nwchem/dist/v6.3-13-10-17.new2
    nwchem branch   = 6.3
    nwchem revision = 24652
    ga revision     = 10379
    input           = nw_methane_HF.nw
    prefix          = test.
    data base       = ./test.db
    status          = startup
    nproc           =       24
    time left       =     -1s



           Memory information
           ------------------

    heap     =   13107201 doubles =    100.0 Mbytes
    stack    =   13107201 doubles =    100.0 Mbytes
    global   =   26214400 doubles =    200.0 Mbytes (distinct from heap & stack)
    total    =   52428802 doubles =    400.0 Mbytes
    verify   = yes
    hardfail = no 


           Directory information
           ---------------------
 
  0 permanent = .
  0 scratch   = .
 
 
 
 
                                NWChem Input Module
                                -------------------
 
 

 Scaling coordinates for geometry "GEOM" by  1.889725989
 (inverse scale =  0.529177249)

 
 
                               Geometry "GEOM" -> ""
                               ---------------------
 
 Output coordinates in angstroms (scale by  1.889725989 to convert to a.u.)
 
  No.       Tag          Charge          X              Y              Z
 ---- ---------------- ---------- -------------- -------------- --------------
    1 C                    6.0000     0.00000000     0.00000000     0.00000000
    2 H                    1.0000     0.69282032     0.69282032     0.69282032
    3 H                    1.0000    -0.69282032    -0.69282032     0.69282032
    4 H                    1.0000    -0.69282032     0.69282032    -0.69282032
    5 H                    1.0000     0.69282032    -0.69282032    -0.69282032
 
      Atomic Mass 
      ----------- 
 
      C                 12.000000
      H                  1.007825
 

 Effective nuclear repulsion energy (a.u.)      12.2038128377

            Nuclear Dipole moment (a.u.) 
            ----------------------------
        X                 Y               Z
 ---------------- ---------------- ----------------
     0.0000000000     0.0000000000     0.0000000000
 
 
            XYZ format geometry
            -------------------
     5
 GEOM
 C                     0.00000000     0.00000000     0.00000000
 H                     0.69282032     0.69282032     0.69282032
 H                    -0.69282032    -0.69282032     0.69282032
 H                    -0.69282032     0.69282032    -0.69282032
 H                     0.69282032    -0.69282032    -0.69282032
 
  library name resolved from: environment
  library file name is: </home/tkemper/nwchem/basis/libraries/>
  


 Summary of "ao basis" -> "" (cartesian)
 ------------------------------------------------------------------------------
       Tag                 Description            Shells   Functions and Types
 ---------------- ------------------------------  ------  ---------------------
 *                           6-31g                    on all atoms 


                      Basis "ao basis" -> "ao basis" (cartesian)
                      -----
  C (Carbon)
  ----------
            Exponent  Coefficients 
       -------------- ---------------------------------------------------------
  1 S  3.04752490E+03  0.001835
  1 S  4.57369510E+02  0.014037
  1 S  1.03948690E+02  0.068843
  1 S  2.92101550E+01  0.232184
  1 S  9.28666300E+00  0.467941
  1 S  3.16392700E+00  0.362312
 
  2 S  7.86827240E+00 -0.119332
  2 S  1.88128850E+00 -0.160854
  2 S  5.44249300E-01  1.143456
 
  3 P  7.86827240E+00  0.068999
  3 P  1.88128850E+00  0.316424
  3 P  5.44249300E-01  0.744308
 
  4 S  1.68714400E-01  1.000000
 
  5 P  1.68714400E-01  1.000000
 
  H (Hydrogen)
  ------------
            Exponent  Coefficients 
       -------------- ---------------------------------------------------------
  1 S  1.87311370E+01  0.033495
  1 S  2.82539370E+00  0.234727
  1 S  6.40121700E-01  0.813757
 
  2 S  1.61277800E-01  1.000000
 


 Summary of "ao basis" -> "ao basis" (cartesian)
 ------------------------------------------------------------------------------
       Tag                 Description            Shells   Functions and Types
 ---------------- ------------------------------  ------  ---------------------
 C                           6-31g                   5        9   3s2p
 H                           6-31g                   2        2   2s


                                 NWChem SCF Module
                                 -----------------
 
 

  ao basis        = "ao basis"
  functions       =    17
  atoms           =     5
  alpha electrons =     5
  beta  electrons =     5
  charge          =   0.00
  wavefunction    = UHF 
  input vectors   = atomic
  output vectors  = ./test.movecs
  use symmetry    = F
  symmetry adapt  = F


 Summary of "ao basis" -> "ao basis" (cartesian)
 ------------------------------------------------------------------------------
       Tag                 Description            Shells   Functions and Types
 ---------------- ------------------------------  ------  ---------------------
 C                           6-31g                   5        9   3s2p
 H                           6-31g                   2        2   2s



 Forming initial guess at       2.0s

 
      Superposition of Atomic Density Guess
      -------------------------------------
 
 Sum of atomic energies:         -39.65318430
 
      Non-variational initial energy
      ------------------------------

 Total energy =     -39.932814
 1-e energy   =     -76.270068
 2-e energy   =      24.133441
 HOMO         =      -0.455665
 LUMO         =       0.128974
 

 Starting SCF solution at       3.7s



 ----------------------------------------------
         Quadratically convergent UHF

 Convergence threshold     :          1.000E-04
 Maximum no. of iterations :          100
 Integral*density screening:          1.000E-07
 ----------------------------------------------

