LAMMPS Data File 

     125  atoms 
    1000  bonds 
       0  angles 
       0  dihedrals 
       0  impropers 

       2  atom types 
       1  bond types 
       0  angle types 
       0  dihedral types 
       0  improper types 

      0.00000000     200.00000000   xlo xhi 
      0.00000000     200.00000000   ylo yhi 
      0.00000000     200.00000000   zlo zhi 

Masses 

    1       1.00000000 
    2       2.00000000 

Pair Coeffs 

    1     1.000000    35.635949  
    2     1.000000    35.635949  

Bond Coeffs 

         1     1.000000    40.000000 

Atoms 

    1     1     1   0.00000000    15.000000    15.000000    15.000000 
    2     1     2   0.00000000    15.000000    15.000000    55.000000 
    3     1     2   0.00000000    15.000000    15.000000    95.000000 
    4     1     2   0.00000000    15.000000    15.000000   135.000000 
    5     1     2   0.00000000    15.000000    15.000000   175.000000 
    6     1     2   0.00000000    15.000000    55.000000    15.000000 
    7     1     2   0.00000000    15.000000    55.000000    55.000000 
    8     1     2   0.00000000    15.000000    55.000000    95.000000 
    9     1     2   0.00000000    15.000000    55.000000   135.000000 
   10     1     2   0.00000000    15.000000    55.000000   175.000000 
   11     1     2   0.00000000    15.000000    95.000000    15.000000 
   12     1     2   0.00000000    15.000000    95.000000    55.000000 
   13     1     2   0.00000000    15.000000    95.000000    95.000000 
   14     1     2   0.00000000    15.000000    95.000000   135.000000 
   15     1     2   0.00000000    15.000000    95.000000   175.000000 
   16     1     2   0.00000000    15.000000   135.000000    15.000000 
   17     1     2   0.00000000    15.000000   135.000000    55.000000 
   18     1     2   0.00000000    15.000000   135.000000    95.000000 
   19     1     2   0.00000000    15.000000   135.000000   135.000000 
   20     1     2   0.00000000    15.000000   135.000000   175.000000 
   21     1     2   0.00000000    15.000000   175.000000    15.000000 
   22     1     2   0.00000000    15.000000   175.000000    55.000000 
   23     1     2   0.00000000    15.000000   175.000000    95.000000 
   24     1     2   0.00000000    15.000000   175.000000   135.000000 
   25     1     2   0.00000000    15.000000   175.000000   175.000000 
   26     1     1   0.00000000    55.000000    15.000000    15.000000 
   27     1     2   0.00000000    55.000000    15.000000    55.000000 
   28     1     2   0.00000000    55.000000    15.000000    95.000000 
   29     1     2   0.00000000    55.000000    15.000000   135.000000 
   30     1     2   0.00000000    55.000000    15.000000   175.000000 
   31     1     2   0.00000000    55.000000    55.000000    15.000000 
   32     1     2   0.00000000    55.000000    55.000000    55.000000 
   33     1     2   0.00000000    55.000000    55.000000    95.000000 
   34     1     2   0.00000000    55.000000    55.000000   135.000000 
   35     1     2   0.00000000    55.000000    55.000000   175.000000 
   36     1     2   0.00000000    55.000000    95.000000    15.000000 
   37     1     2   0.00000000    55.000000    95.000000    55.000000 
   38     1     2   0.00000000    55.000000    95.000000    95.000000 
   39     1     2   0.00000000    55.000000    95.000000   135.000000 
   40     1     2   0.00000000    55.000000    95.000000   175.000000 
   41     1     2   0.00000000    55.000000   135.000000    15.000000 
   42     1     2   0.00000000    55.000000   135.000000    55.000000 
   43     1     2   0.00000000    55.000000   135.000000    95.000000 
   44     1     2   0.00000000    55.000000   135.000000   135.000000 
   45     1     2   0.00000000    55.000000   135.000000   175.000000 
   46     1     2   0.00000000    55.000000   175.000000    15.000000 
   47     1     2   0.00000000    55.000000   175.000000    55.000000 
   48     1     2   0.00000000    55.000000   175.000000    95.000000 
   49     1     2   0.00000000    55.000000   175.000000   135.000000 
   50     1     2   0.00000000    55.000000   175.000000   175.000000 
   51     1     1   0.00000000    95.000000    15.000000    15.000000 
   52     1     2   0.00000000    95.000000    15.000000    55.000000 
   53     1     2   0.00000000    95.000000    15.000000    95.000000 
   54     1     2   0.00000000    95.000000    15.000000   135.000000 
   55     1     2   0.00000000    95.000000    15.000000   175.000000 
   56     1     2   0.00000000    95.000000    55.000000    15.000000 
   57     1     2   0.00000000    95.000000    55.000000    55.000000 
   58     1     2   0.00000000    95.000000    55.000000    95.000000 
   59     1     2   0.00000000    95.000000    55.000000   135.000000 
   60     1     2   0.00000000    95.000000    55.000000   175.000000 
   61     1     2   0.00000000    95.000000    95.000000    15.000000 
   62     1     2   0.00000000    95.000000    95.000000    55.000000 
   63     1     2   0.00000000    95.000000    95.000000    95.000000 
   64     1     2   0.00000000    95.000000    95.000000   135.000000 
   65     1     2   0.00000000    95.000000    95.000000   175.000000 
   66     1     2   0.00000000    95.000000   135.000000    15.000000 
   67     1     2   0.00000000    95.000000   135.000000    55.000000 
   68     1     2   0.00000000    95.000000   135.000000    95.000000 
   69     1     2   0.00000000    95.000000   135.000000   135.000000 
   70     1     2   0.00000000    95.000000   135.000000   175.000000 
   71     1     2   0.00000000    95.000000   175.000000    15.000000 
   72     1     2   0.00000000    95.000000   175.000000    55.000000 
   73     1     2   0.00000000    95.000000   175.000000    95.000000 
   74     1     2   0.00000000    95.000000   175.000000   135.000000 
   75     1     2   0.00000000    95.000000   175.000000   175.000000 
   76     1     1   0.00000000   135.000000    15.000000    15.000000 
   77     1     2   0.00000000   135.000000    15.000000    55.000000 
   78     1     2   0.00000000   135.000000    15.000000    95.000000 
   79     1     2   0.00000000   135.000000    15.000000   135.000000 
   80     1     2   0.00000000   135.000000    15.000000   175.000000 
   81     1     2   0.00000000   135.000000    55.000000    15.000000 
   82     1     2   0.00000000   135.000000    55.000000    55.000000 
   83     1     2   0.00000000   135.000000    55.000000    95.000000 
   84     1     2   0.00000000   135.000000    55.000000   135.000000 
   85     1     2   0.00000000   135.000000    55.000000   175.000000 
   86     1     2   0.00000000   135.000000    95.000000    15.000000 
   87     1     2   0.00000000   135.000000    95.000000    55.000000 
   88     1     2   0.00000000   135.000000    95.000000    95.000000 
   89     1     2   0.00000000   135.000000    95.000000   135.000000 
   90     1     2   0.00000000   135.000000    95.000000   175.000000 
   91     1     2   0.00000000   135.000000   135.000000    15.000000 
   92     1     2   0.00000000   135.000000   135.000000    55.000000 
   93     1     2   0.00000000   135.000000   135.000000    95.000000 
   94     1     2   0.00000000   135.000000   135.000000   135.000000 
   95     1     2   0.00000000   135.000000   135.000000   175.000000 
   96     1     2   0.00000000   135.000000   175.000000    15.000000 
   97     1     2   0.00000000   135.000000   175.000000    55.000000 
   98     1     2   0.00000000   135.000000   175.000000    95.000000 
   99     1     2   0.00000000   135.000000   175.000000   135.000000 
  100     1     2   0.00000000   135.000000   175.000000   175.000000 
  101     1     1   0.00000000   175.000000    15.000000    15.000000 
  102     1     2   0.00000000   175.000000    15.000000    55.000000 
  103     1     2   0.00000000   175.000000    15.000000    95.000000 
  104     1     2   0.00000000   175.000000    15.000000   135.000000 
  105     1     2   0.00000000   175.000000    15.000000   175.000000 
  106     1     2   0.00000000   175.000000    55.000000    15.000000 
  107     1     2   0.00000000   175.000000    55.000000    55.000000 
  108     1     2   0.00000000   175.000000    55.000000    95.000000 
  109     1     2   0.00000000   175.000000    55.000000   135.000000 
  110     1     2   0.00000000   175.000000    55.000000   175.000000 
  111     1     2   0.00000000   175.000000    95.000000    15.000000 
  112     1     2   0.00000000   175.000000    95.000000    55.000000 
  113     1     2   0.00000000   175.000000    95.000000    95.000000 
  114     1     2   0.00000000   175.000000    95.000000   135.000000 
  115     1     2   0.00000000   175.000000    95.000000   175.000000 
  116     1     2   0.00000000   175.000000   135.000000    15.000000 
  117     1     2   0.00000000   175.000000   135.000000    55.000000 
  118     1     2   0.00000000   175.000000   135.000000    95.000000 
  119     1     2   0.00000000   175.000000   135.000000   135.000000 
  120     1     2   0.00000000   175.000000   135.000000   175.000000 
  121     1     2   0.00000000   175.000000   175.000000    15.000000 
  122     1     2   0.00000000   175.000000   175.000000    55.000000 
  123     1     2   0.00000000   175.000000   175.000000    95.000000 
  124     1     2   0.00000000   175.000000   175.000000   135.000000 
  125     1     2   0.00000000   175.000000   175.000000   175.000000 

Bonds 

        1        1         1         2 
        2        1         1         5 
        3        1         1         6 
        4        1         1         7 
        5        1         1        10 
        6        1         1        21 
        7        1         1        22 
        8        1         1        25 
        9        1         1        26 
       10        1         1        27 
       11        1         1        30 
       12        1         1        31 
       13        1         1        46 
       14        1         2         3 
       15        1         2         6 
       16        1         2         7 
       17        1         2         8 
       18        1         2        21 
       19        1         2        22 
       20        1         2        23 
       21        1         2        26 
       22        1         2        27 
       23        1         2        28 
       24        1         2        32 
       25        1         2        47 
       26        1         3         4 
       27        1         3         7 
       28        1         3         8 
       29        1         3         9 
       30        1         3        22 
       31        1         3        23 
       32        1         3        24 
       33        1         3        27 
       34        1         3        28 
       35        1         3        29 
       36        1         3        33 
       37        1         3        48 
       38        1         4         5 
       39        1         4         8 
       40        1         4         9 
       41        1         4        10 
       42        1         4        23 
       43        1         4        24 
       44        1         4        25 
       45        1         4        28 
       46        1         4        29 
       47        1         4        30 
       48        1         4        34 
       49        1         4        49 
       50        1         5         6 
       51        1         5         9 
       52        1         5        10 
       53        1         5        21 
       54        1         5        24 
       55        1         5        25 
       56        1         5        26 
       57        1         5        29 
       58        1         5        30 
       59        1         5        35 
       60        1         5        50 
       61        1         6         7 
       62        1         6        10 
       63        1         6        11 
       64        1         6        12 
       65        1         6        15 
       66        1         6        26 
       67        1         6        31 
       68        1         6        32 
       69        1         6        35 
       70        1         6        36 
       71        1         7         8 
       72        1         7        11 
       73        1         7        12 
       74        1         7        13 
       75        1         7        27 
       76        1         7        31 
       77        1         7        32 
       78        1         7        33 
       79        1         7        37 
       80        1         8         9 
       81        1         8        12 
       82        1         8        13 
       83        1         8        14 
       84        1         8        28 
       85        1         8        32 
       86        1         8        33 
       87        1         8        34 
       88        1         8        38 
       89        1         9        10 
       90        1         9        13 
       91        1         9        14 
       92        1         9        15 
       93        1         9        29 
       94        1         9        33 
       95        1         9        34 
       96        1         9        35 
       97        1         9        39 
       98        1        10        11 
       99        1        10        14 
      100        1        10        15 
      101        1        10        30 
      102        1        10        31 
      103        1        10        34 
      104        1        10        35 
      105        1        10        40 
      106        1        11        12 
      107        1        11        15 
      108        1        11        16 
      109        1        11        17 
      110        1        11        20 
      111        1        11        31 
      112        1        11        36 
      113        1        11        37 
      114        1        11        40 
      115        1        11        41 
      116        1        12        13 
      117        1        12        16 
      118        1        12        17 
      119        1        12        18 
      120        1        12        32 
      121        1        12        36 
      122        1        12        37 
      123        1        12        38 
      124        1        12        42 
      125        1        13        14 
      126        1        13        17 
      127        1        13        18 
      128        1        13        19 
      129        1        13        33 
      130        1        13        37 
      131        1        13        38 
      132        1        13        39 
      133        1        13        43 
      134        1        14        15 
      135        1        14        18 
      136        1        14        19 
      137        1        14        20 
      138        1        14        34 
      139        1        14        38 
      140        1        14        39 
      141        1        14        40 
      142        1        14        44 
      143        1        15        16 
      144        1        15        19 
      145        1        15        20 
      146        1        15        35 
      147        1        15        36 
      148        1        15        39 
      149        1        15        40 
      150        1        15        45 
      151        1        16        17 
      152        1        16        20 
      153        1        16        21 
      154        1        16        22 
      155        1        16        25 
      156        1        16        36 
      157        1        16        41 
      158        1        16        42 
      159        1        16        45 
      160        1        16        46 
      161        1        17        18 
      162        1        17        21 
      163        1        17        22 
      164        1        17        23 
      165        1        17        37 
      166        1        17        41 
      167        1        17        42 
      168        1        17        43 
      169        1        17        47 
      170        1        18        19 
      171        1        18        22 
      172        1        18        23 
      173        1        18        24 
      174        1        18        38 
      175        1        18        42 
      176        1        18        43 
      177        1        18        44 
      178        1        18        48 
      179        1        19        20 
      180        1        19        23 
      181        1        19        24 
      182        1        19        25 
      183        1        19        39 
      184        1        19        43 
      185        1        19        44 
      186        1        19        45 
      187        1        19        49 
      188        1        20        21 
      189        1        20        24 
      190        1        20        25 
      191        1        20        40 
      192        1        20        41 
      193        1        20        44 
      194        1        20        45 
      195        1        20        50 
      196        1        21        22 
      197        1        21        25 
      198        1        21        26 
      199        1        21        41 
      200        1        21        46 
      201        1        21        47 
      202        1        21        50 
      203        1        22        23 
      204        1        22        27 
      205        1        22        42 
      206        1        22        46 
      207        1        22        47 
      208        1        22        48 
      209        1        23        24 
      210        1        23        28 
      211        1        23        43 
      212        1        23        47 
      213        1        23        48 
      214        1        23        49 
      215        1        24        25 
      216        1        24        29 
      217        1        24        44 
      218        1        24        48 
      219        1        24        49 
      220        1        24        50 
      221        1        25        30 
      222        1        25        45 
      223        1        25        46 
      224        1        25        49 
      225        1        25        50 
      226        1        26        27 
      227        1        26        30 
      228        1        26        31 
      229        1        26        32 
      230        1        26        35 
      231        1        26        46 
      232        1        26        47 
      233        1        26        50 
      234        1        26        51 
      235        1        26        52 
      236        1        26        55 
      237        1        26        56 
      238        1        26        71 
      239        1        27        28 
      240        1        27        31 
      241        1        27        32 
      242        1        27        33 
      243        1        27        46 
      244        1        27        47 
      245        1        27        48 
      246        1        27        51 
      247        1        27        52 
      248        1        27        53 
      249        1        27        57 
      250        1        27        72 
      251        1        28        29 
      252        1        28        32 
      253        1        28        33 
      254        1        28        34 
      255        1        28        47 
      256        1        28        48 
      257        1        28        49 
      258        1        28        52 
      259        1        28        53 
      260        1        28        54 
      261        1        28        58 
      262        1        28        73 
      263        1        29        30 
      264        1        29        33 
      265        1        29        34 
      266        1        29        35 
      267        1        29        48 
      268        1        29        49 
      269        1        29        50 
      270        1        29        53 
      271        1        29        54 
      272        1        29        55 
      273        1        29        59 
      274        1        29        74 
      275        1        30        31 
      276        1        30        34 
      277        1        30        35 
      278        1        30        46 
      279        1        30        49 
      280        1        30        50 
      281        1        30        51 
      282        1        30        54 
      283        1        30        55 
      284        1        30        60 
      285        1        30        75 
      286        1        31        32 
      287        1        31        35 
      288        1        31        36 
      289        1        31        37 
      290        1        31        40 
      291        1        31        51 
      292        1        31        56 
      293        1        31        57 
      294        1        31        60 
      295        1        31        61 
      296        1        32        33 
      297        1        32        36 
      298        1        32        37 
      299        1        32        38 
      300        1        32        52 
      301        1        32        56 
      302        1        32        57 
      303        1        32        58 
      304        1        32        62 
      305        1        33        34 
      306        1        33        37 
      307        1        33        38 
      308        1        33        39 
      309        1        33        53 
      310        1        33        57 
      311        1        33        58 
      312        1        33        59 
      313        1        33        63 
      314        1        34        35 
      315        1        34        38 
      316        1        34        39 
      317        1        34        40 
      318        1        34        54 
      319        1        34        58 
      320        1        34        59 
      321        1        34        60 
      322        1        34        64 
      323        1        35        36 
      324        1        35        39 
      325        1        35        40 
      326        1        35        55 
      327        1        35        56 
      328        1        35        59 
      329        1        35        60 
      330        1        35        65 
      331        1        36        37 
      332        1        36        40 
      333        1        36        41 
      334        1        36        42 
      335        1        36        45 
      336        1        36        56 
      337        1        36        61 
      338        1        36        62 
      339        1        36        65 
      340        1        36        66 
      341        1        37        38 
      342        1        37        41 
      343        1        37        42 
      344        1        37        43 
      345        1        37        57 
      346        1        37        61 
      347        1        37        62 
      348        1        37        63 
      349        1        37        67 
      350        1        38        39 
      351        1        38        42 
      352        1        38        43 
      353        1        38        44 
      354        1        38        58 
      355        1        38        62 
      356        1        38        63 
      357        1        38        64 
      358        1        38        68 
      359        1        39        40 
      360        1        39        43 
      361        1        39        44 
      362        1        39        45 
      363        1        39        59 
      364        1        39        63 
      365        1        39        64 
      366        1        39        65 
      367        1        39        69 
      368        1        40        41 
      369        1        40        44 
      370        1        40        45 
      371        1        40        60 
      372        1        40        61 
      373        1        40        64 
      374        1        40        65 
      375        1        40        70 
      376        1        41        42 
      377        1        41        45 
      378        1        41        46 
      379        1        41        47 
      380        1        41        50 
      381        1        41        61 
      382        1        41        66 
      383        1        41        67 
      384        1        41        70 
      385        1        41        71 
      386        1        42        43 
      387        1        42        46 
      388        1        42        47 
      389        1        42        48 
      390        1        42        62 
      391        1        42        66 
      392        1        42        67 
      393        1        42        68 
      394        1        42        72 
      395        1        43        44 
      396        1        43        47 
      397        1        43        48 
      398        1        43        49 
      399        1        43        63 
      400        1        43        67 
      401        1        43        68 
      402        1        43        69 
      403        1        43        73 
      404        1        44        45 
      405        1        44        48 
      406        1        44        49 
      407        1        44        50 
      408        1        44        64 
      409        1        44        68 
      410        1        44        69 
      411        1        44        70 
      412        1        44        74 
      413        1        45        46 
      414        1        45        49 
      415        1        45        50 
      416        1        45        65 
      417        1        45        66 
      418        1        45        69 
      419        1        45        70 
      420        1        45        75 
      421        1        46        47 
      422        1        46        50 
      423        1        46        51 
      424        1        46        66 
      425        1        46        71 
      426        1        46        72 
      427        1        46        75 
      428        1        47        48 
      429        1        47        52 
      430        1        47        67 
      431        1        47        71 
      432        1        47        72 
      433        1        47        73 
      434        1        48        49 
      435        1        48        53 
      436        1        48        68 
      437        1        48        72 
      438        1        48        73 
      439        1        48        74 
      440        1        49        50 
      441        1        49        54 
      442        1        49        69 
      443        1        49        73 
      444        1        49        74 
      445        1        49        75 
      446        1        50        55 
      447        1        50        70 
      448        1        50        71 
      449        1        50        74 
      450        1        50        75 
      451        1        51        52 
      452        1        51        55 
      453        1        51        56 
      454        1        51        57 
      455        1        51        60 
      456        1        51        71 
      457        1        51        72 
      458        1        51        75 
      459        1        51        76 
      460        1        51        77 
      461        1        51        80 
      462        1        51        81 
      463        1        51        96 
      464        1        52        53 
      465        1        52        56 
      466        1        52        57 
      467        1        52        58 
      468        1        52        71 
      469        1        52        72 
      470        1        52        73 
      471        1        52        76 
      472        1        52        77 
      473        1        52        78 
      474        1        52        82 
      475        1        52        97 
      476        1        53        54 
      477        1        53        57 
      478        1        53        58 
      479        1        53        59 
      480        1        53        72 
      481        1        53        73 
      482        1        53        74 
      483        1        53        77 
      484        1        53        78 
      485        1        53        79 
      486        1        53        83 
      487        1        53        98 
      488        1        54        55 
      489        1        54        58 
      490        1        54        59 
      491        1        54        60 
      492        1        54        73 
      493        1        54        74 
      494        1        54        75 
      495        1        54        78 
      496        1        54        79 
      497        1        54        80 
      498        1        54        84 
      499        1        54        99 
      500        1        55        56 
      501        1        55        59 
      502        1        55        60 
      503        1        55        71 
      504        1        55        74 
      505        1        55        75 
      506        1        55        76 
      507        1        55        79 
      508        1        55        80 
      509        1        55        85 
      510        1        55       100 
      511        1        56        57 
      512        1        56        60 
      513        1        56        61 